# vtk DataFile Version 4.0
vtk output
ASCII
DATASET UNSTRUCTURED_GRID
POINTS 2 float
0.0000000e+00 0.0000000e+00 0.0000000e+00 
1.0000000e+03 0.0000000e+00 0.0000000e+00 

CELLS 1 3
2 0 1

CELL_TYPES 1
3
POINT_DATA 2
FIELD FieldData 2
DISPLACEMENT 3 2  float
0.0000000e+00 0.0000000e+00 0.0000000e+00 
5.4421771e-01 0.0000000e+00 0.0000000e+00 
REACTION 3 2  float
-4.0000000e+04 -0.0000000e+00 -0.0000000e+00 
7.2759576e-12 -0.0000000e+00 -0.0000000e+00 
CELL_DATA 1
FIELD FieldData 0
